4
 Atoms. Timestep: 0
1 0.0601884 0.053387 0.0690209
1 0.0146786 1.94531 1.89124
1 1.99828 0.034132 1.83264
1 1.87749 1.92514 0.108676
4
 Atoms. Timestep: 1
1 0.0601836 0.0533822 0.0690218
1 0.0146721 1.94532 1.89124
1 1.99828 0.0341263 1.83263
1 1.87749 1.92514 0.108679
4
 Atoms. Timestep: 2
1 0.0601693 0.0533679 0.0690242
1 0.0146524 1.94533 1.89124
1 1.99831 0.0341091 1.83262
1 1.8775 1.92516 0.108685
4
 Atoms. Timestep: 3
1 0.0601453 0.0533441 0.0690282
1 0.0146195 1.94536 1.89124
1 1.99835 0.0340805 1.83261
1 1.87752 1.92518 0.108697
4
 Atoms. Timestep: 4
1 0.0601118 0.0533107 0.0690339
1 0.0145735 1.9454 1.89124
1 1.9984 0.0340404 1.83259
1 1.87755 1.92521 0.108713
4
 Atoms. Timestep: 5
1 0.0600686 0.0532678 0.0690412
1 0.0145144 1.94545 1.89123
1 1.99848 0.0339889 1.83257
1 1.87758 1.92526 0.108733
4
 Atoms. Timestep: 6
1 0.0600159 0.0532153 0.0690501
1 0.0144421 1.94552 1.89123
1 1.99856 0.0339259 1.83254
1 1.87761 1.92531 0.108758
4
 Atoms. Timestep: 7
1 0.0599535 0.0531532 0.0690607
1 0.0143566 1.94559 1.89122
1 1.99867 0.0338514 1.83251
1 1.87766 1.92537 0.108787
4
 Atoms. Timestep: 8
1 0.0598815 0.0530816 0.0690729
1 0.0142579 1.94568 1.89121
1 1.99879 0.0337653 1.83247
1 1.87771 1.92544 0.108821
4
 Atoms. Timestep: 9
1 0.0597998 0.0530004 0.0690867
1 0.0141459 1.94577 1.89121
1 1.99892 0.0336678 1.83242
1 1.87777 1.92552 0.10886
4
 Atoms. Timestep: 10
1 0.0597085 0.0529095 0.0691022
1 0.0140207 1.94588 1.8912
1 1.99907 0.0335587 1.83237
1 1.87783 1.92561 0.108903
4
 Atoms. Timestep: 11
1 0.0596075 0.052809 0.0691193
1 0.0138823 1.946 1.89119
1 1.99924 0.033438 1.83232
1 1.8779 1.92571 0.108951
4
 Atoms. Timestep: 12
1 0.0594967 0.0526988 0.069138
1 0.0137305 1.94614 1.89118
1 1.99942 0.0333058 1.83226
1 1.87798 1.92582 0.109003
4
 Atoms. Timestep: 13
1 0.0593762 0.0525789 0.0691585
1 0.0135655 1.94628 1.89116
1 1.99962 0.0331618 1.83219
1 1.87807 1.92594 0.10906
4
 Atoms. Timestep: 14
1 0.0592459 0.0524493 0.0691806
1 0.013387 1.94644 1.89115
1 1.99984 0.0330063 1.83212
1 1.87816 1.92607 0.109122
4
 Atoms. Timestep: 15
1 0.0591058 0.05231 0.0692044
1 0.0131951 1.9466 1.89114
1 2.00007 0.032839 1.83204
1 1.87826 1.92621 0.109188
4
 Atoms. Timestep: 16
1 0.0589558 0.0521609 0.0692299
1 0.0129898 1.94678 1.89112
1 2.00032 0.0326599 1.83196
1 1.87837 1.92636 0.109259
4
 Atoms. Timestep: 17
1 0.0587959 0.0520019 0.0692571
1 0.012771 1.94698 1.89111
1 2.00058 0.0324691 1.83188
1 1.87848 1.92652 0.109334
4
 Atoms. Timestep: 18
1 0.0586261 0.0518331 0.069286
1 0.0125386 1.94718 1.89109
1 2.00087 0.0322665 1.83178
1 1.8786 1.92669 0.109414
4
 Atoms. Timestep: 19
1 0.0584464 0.0516544 0.0693166
1 0.0122927 1.94739 1.89107
1 2.00116 0.0320519 1.83169
1 1.87873 1.92687 0.109499
4
 Atoms. Timestep: 20
1 0.0582566 0.0514657 0.0693489
1 0.0120331 1.94762 1.89105
1 2.00148 0.0318255 1.83158
1 1.87887 1.92705 0.109588
4
 Atoms. Timestep: 21
1 0.0580567 0.051267 0.069383
1 0.0117598 1.94786 1.89103
1 2.00181 0.031587 1.83147
1 1.87901 1.92725 0.109683
4
 Atoms. Timestep: 22
1 0.0578467 0.0510583 0.0694189
1 0.0114728 1.94811 1.89101
1 2.00215 0.0313366 1.83136
1 1.87916 1.92746 0.109782
4
 Atoms. Timestep: 23
1 0.0576266 0.0508396 0.0694565
1 0.0111719 1.94837 1.89099
1 2.00252 0.031074 1.83124
1 1.87932 1.92768 0.109885
4
 Atoms. Timestep: 24
1 0.0573962 0.0506106 0.0694959
1 0.0108572 1.94865 1.89097
1 2.0029 0.0307992 1.83112
1 1.87948 1.92791 0.109993
4
 Atoms. Timestep: 25
1 0.0571555 0.0503715 0.0695371
1 0.0105285 1.94894 1.89095
1 2.00329 0.0305123 1.83099
1 1.87966 1.92815 0.110107
4
 Atoms. Timestep: 26
1 0.0569045 0.0501222 0.0695802
1 0.0101858 1.94924 1.89092
1 2.00371 0.030213 1.83085
1 1.87984 1.92839 0.110225
4
 Atoms. Timestep: 27
1 0.0566431 0.0498625 0.0696251
1 0.00982898 1.94955 1.89089
1 2.00414 0.0299014 1.83071
1 1.88002 1.92865 0.110347
4
 Atoms. Timestep: 28
1 0.0563712 0.0495924 0.0696718
1 0.00945801 1.94987 1.89087
1 2.00459 0.0295774 1.83056
1 1.88022 1.92892 0.110475
4
 Atoms. Timestep: 29
1 0.0560887 0.0493119 0.0697204
1 0.0090728 1.95021 1.89084
1 2.00505 0.0292408 1.83041
1 1.88042 1.9292 0.110607
4
 Atoms. Timestep: 30
1 0.0557957 0.049021 0.0697709
1 0.00867326 1.95056 1.89081
1 2.00553 0.0288917 1.83025
1 1.88063 1.92949 0.110745
4
 Atoms. Timestep: 31
1 0.0554919 0.0487194 0.0698233
1 0.0082593 1.95092 1.89078
1 2.00603 0.0285298 1.83009
1 1.88085 1.92979 0.110887
4
 Atoms. Timestep: 32
1 0.0551774 0.0484072 0.0698776
1 0.00783084 1.9513 1.89075
1 2.00655 0.0281553 1.82992
1 1.88108 1.93011 0.111034
4
 Atoms. Timestep: 33
1 0.054852 0.0480842 0.0699339
1 0.00738778 1.95168 1.89071
1 2.00708 0.0277678 1.82974
1 1.88131 1.93043 0.111186
4
 Atoms. Timestep: 34
1 0.0545157 0.0477505 0.0699922
1 0.00693003 1.95209 1.89068
1 2.00763 0.0273675 1.82956
1 1.88156 1.93076 0.111344
4
 Atoms. Timestep: 35
1 0.0541683 0.0474059 0.0700525
1 0.00645749 1.9525 1.89064
1 2.0082 0.0269541 1.82937
1 1.88181 1.93111 0.111506
4
 Atoms. Timestep: 36
1 0.0538099 0.0470503 0.0701147
1 0.00597006 1.95293 1.89061
1 2.00879 0.0265275 1.82918
1 1.88207 1.93146 0.111673
4
 Atoms. Timestep: 37
1 0.0534402 0.0466837 0.0701791
1 0.00546764 1.95337 1.89057
1 2.00939 0.0260878 1.82898
1 1.88233 1.93183 0.111846
4
 Atoms. Timestep: 38
1 0.0530593 0.046306 0.0702455
1 0.00495011 1.95382 1.89053
1 2.01002 0.0256347 1.82878
1 1.88261 1.9322 0.112023
4
 Atoms. Timestep: 39
1 0.052667 0.045917 0.0703139
1 0.00441737 1.95429 1.89049
1 2.01066 0.0251682 1.82857
1 1.88289 1.93259 0.112206
4
 Atoms. Timestep: 40
1 0.0522632 0.0455167 0.0703846
1 0.0038693 1.95477 1.89044
1 2.01132 0.0246881 1.82835
1 1.88319 1.93299 0.112394
4
 Atoms. Timestep: 41
1 0.0518478 0.045105 0.0704573
1 0.00330578 1.95526 1.8904
1 2.01199 0.0241943 1.82813
1 1.88349 1.9334 0.112587
4
 Atoms. Timestep: 42
1 0.0514207 0.0446818 0.0705323
1 0.00272669 1.95577 1.89036
1 2.01269 0.0236867 1.8279
1 1.8838 1.93382 0.112785
4
 Atoms. Timestep: 43
1 0.0509818 0.044247 0.0706094
1 0.00213191 1.95629 1.89031
1 2.01341 0.0231653 1.82767
1 1.88412 1.93426 0.112989
4
 Atoms. Timestep: 44
1 0.0505309 0.0438005 0.0706888
1 0.0015213 1.95683 1.89026
1 2.01414 0.0226298 1.82743
1 1.88444 1.9347 0.113198
4
 Atoms. Timestep: 45
1 0.0500681 0.0433421 0.0707704
1 0.000894745 1.95738 1.89021
1 2.01489 0.0220801 1.82718
1 1.88478 1.93516 0.113412
4
 Atoms. Timestep: 46
1 0.0495931 0.0428718 0.0708544
1 0.000252098 1.95795 1.89016
1 2.01566 0.0215162 1.82693
1 1.88513 1.93563 0.113632
4
 Atoms. Timestep: 47
1 0.0491058 0.0423895 0.0709407
1 -0.000406778 1.95852 1.89011
1 2.01645 0.0209378 1.82667
1 1.88548 1.93611 0.113857
4
 Atoms. Timestep: 48
1 0.0486062 0.0418949 0.0710293
1 -0.00108203 1.95912 1.89005
1 2.01726 0.0203448 1.82641
1 1.88585 1.93661 0.114088
4
 Atoms. Timestep: 49
1 0.048094 0.0413882 0.0711204
1 -0.00177379 1.95973 1.89
1 2.01809 0.0197371 1.82613
1 1.88622 1.93711 0.114325
4
 Atoms. Timestep: 50
1 0.0475691 0.040869 0.0712138
1 -0.00248222 1.96035 1.88994
1 2.01894 0.0191146 1.82586
1 1.88661 1.93763 0.114567
4
 Atoms. Timestep: 51
1 0.0470315 0.0403373 0.0713098
1 -0.00320748 1.96099 1.88988
1 2.01981 0.0184771 1.82557
1 1.887 1.93816 0.114814
4
 Atoms. Timestep: 52
1 0.046481 0.0397929 0.0714083
1 -0.00394971 1.96164 1.88982
1 2.0207 0.0178244 1.82528
1 1.88741 1.93871 0.115068
4
 Atoms. Timestep: 53
1 0.0459174 0.0392358 0.0715093
1 -0.00470909 1.96231 1.88976
1 2.02161 0.0171564 1.82498
1 1.88782 1.93926 0.115327
4
 Atoms. Timestep: 54
1 0.0453405 0.0386657 0.0716129
1 -0.00548577 1.96299 1.88969
1 2.02254 0.0164729 1.82468
1 1.88824 1.93983 0.115592
4
 Atoms. Timestep: 55
1 0.0447504 0.0380826 0.0717191
1 -0.00627993 1.96369 1.88962
1 2.02349 0.0157737 1.82437
1 1.88868 1.94041 0.115862
4
 Atoms. Timestep: 56
1 0.0441467 0.0374863 0.071828
1 -0.00709174 1.96441 1.88956
1 2.02446 0.0150587 1.82405
1 1.88912 1.94101 0.116139
4
 Atoms. Timestep: 57
1 0.0435294 0.0368766 0.0719396
1 -0.00792137 1.96514 1.88949
1 2.02545 0.0143278 1.82373
1 1.88958 1.94162 0.116422
4
 Atoms. Timestep: 58
1 0.0428982 0.0362535 0.072054
1 -0.00876901 1.96589 1.88941
1 2.02646 0.0135806 1.8234
1 1.89005 1.94224 0.11671
4
 Atoms. Timestep: 59
1 0.0422531 0.0356167 0.0721712
1 -0.00963484 1.96665 1.88934
1 2.02749 0.0128171 1.82306
1 1.89052 1.94288 0.117005
4
 Atoms. Timestep: 60
1 0.0415939 0.0349662 0.0722912
1 -0.0105191 1.96743 1.88926
1 2.02855 0.0120371 1.82272
1 1.89101 1.94353 0.117306
4
 Atoms. Timestep: 61
1 0.0409203 0.0343017 0.0724141
1 -0.0114218 1.96823 1.88918
1 2.02963 0.0112403 1.82236
1 1.89151 1.94419 0.117613
4
 Atoms. Timestep: 62
1 0.0402323 0.0336231 0.07254
1 -0.0123434 1.96905 1.8891
1 2.03072 0.0104266 1.82201
1 1.89202 1.94487 0.117926
4
 Atoms. Timestep: 63
1 0.0395296 0.0329302 0.0726688
1 -0.013284 1.96988 1.88902
1 2.03185 0.00959579 1.82164
1 1.89254 1.94556 0.118245
4
 Atoms. Timestep: 64
1 0.038812 0.0322229 0.0728007
1 -0.0142437 1.97073 1.88894
1 2.03299 0.00874762 1.82127
1 1.89308 1.94627 0.118571
4
 Atoms. Timestep: 65
1 0.0380795 0.031501 0.0729357
1 -0.0152228 1.97159 1.88885
1 2.03415 0.0078819 1.82089
1 1.89362 1.94699 0.118904
4
 Atoms. Timestep: 66
1 0.0373317 0.0307643 0.0730738
1 -0.0162215 1.97248 1.88876
1 2.03534 0.00699842 1.8205
1 1.89418 1.94773 0.119242
4
 Atoms. Timestep: 67
1 0.0365686 0.0300127 0.0732152
1 -0.0172401 1.97338 1.88867
1 2.03655 0.00609696 1.8201
1 1.89475 1.94848 0.119588
4
 Atoms. Timestep: 68
1 0.0357899 0.029246 0.0733598
1 -0.0182787 1.9743 1.88857
1 2.03779 0.00517729 1.8197
1 1.89534 1.94924 0.11994
4
 Atoms. Timestep: 69
1 0.0349953 0.0284639 0.0735077
1 -0.0193376 1.97524 1.88848
1 2.03905 0.00423919 1.81929
1 1.89593 1.95002 0.120299
4
 Atoms. Timestep: 70
1 0.0341848 0.0276663 0.073659
1 -0.0204171 1.97619 1.88838
1 2.04033 0.00328242 1.81887
1 1.89654 1.95082 0.120664
4
 Atoms. Timestep: 71
1 0.0333581 0.026853 0.0738137
1 -0.0215172 1.97717 1.88828
1 2.04163 0.00230675 1.81845
1 1.89716 1.95164 0.121037
4
 Atoms. Timestep: 72
1 0.0325149 0.0260238 0.0739719
1 -0.0226384 1.97816 1.88817
1 2.04296 0.00131192 1.81801
1 1.8978 1.95246 0.121416
4
 Atoms. Timestep: 73
1 0.0316551 0.0251785 0.0741337
1 -0.0237809 1.97918 1.88807
1 2.04432 0.000297687 1.81757
1 1.89844 1.95331 0.121803
4
 Atoms. Timestep: 74
1 0.0307785 0.0243169 0.0742991
1 -0.0249448 1.98021 1.88796
1 2.0457 -0.000736199 1.81712
1 1.89911 1.95417 0.122196
4
 Atoms. Timestep: 75
1 0.0298848 0.0234388 0.0744682
1 -0.0261305 1.98127 1.88784
1 2.0471 -0.00179 1.81667
1 1.89978 1.95505 0.122597
4
 Atoms. Timestep: 76
1 0.0289738 0.022544 0.0746411
1 -0.0273382 1.98234 1.88773
1 2.04853 -0.00286399 1.8162
1 1.90047 1.95594 0.123005
4
 Atoms. Timestep: 77
1 0.0280452 0.0216323 0.0748178
1 -0.0285683 1.98344 1.88761
1 2.04998 -0.00395843 1.81573
1 1.90117 1.95686 0.12342
4
 Atoms. Timestep: 78
1 0.0270989 0.0207033 0.0749984
1 -0.0298209 1.98455 1.88749
1 2.05146 -0.00507361 1.81525
1 1.90189 1.95778 0.123843
4
 Atoms. Timestep: 79
1 0.0261346 0.019757 0.0751829
1 -0.0310963 1.98569 1.88736
1 2.05297 -0.0062098 1.81476
1 1.90262 1.95873 0.124273
4
 Atoms. Timestep: 80
1 0.0251519 0.0187931 0.0753716
1 -0.0323949 1.98684 1.88724
1 2.05451 -0.0073673 1.81426
1 1.90337 1.95969 0.124711
4
 Atoms. Timestep: 81
1 0.0241508 0.0178113 0.0755643
1 -0.0337169 1.98802 1.88711
1 2.05607 -0.00854639 1.81375
1 1.90414 1.96068 0.125157
4
 Atoms. Timestep: 82
1 0.0231309 0.0168115 0.0757612
1 -0.0350626 1.98922 1.88697
1 2.05765 -0.00974738 1.81323
1 1.90491 1.96168 0.12561
4
 Atoms. Timestep: 83
1 0.0220919 0.0157933 0.0759624
1 -0.0364324 1.99045 1.88683
1 2.05927 -0.0109706 1.81271
1 1.90571 1.9627 0.126072
4
 Atoms. Timestep: 84
1 0.0210336 0.0147565 0.076168
1 -0.0378264 1.99169 1.88669
1 2.06091 -0.0122163 1.81217
1 1.90652 1.96373 0.126541
4
 Atoms. Timestep: 85
1 0.0199557 0.0137009 0.0763781
1 -0.0392451 1.99296 1.88655
1 2.06258 -0.0134849 1.81163
1 1.90735 1.96479 0.127018
4
 Atoms. Timestep: 86
1 0.018858 0.0126262 0.0765926
1 -0.0406888 1.99425 1.8864
1 2.06428 -0.0147766 1.81108
1 1.90819 1.96586 0.127504
4
 Atoms. Timestep: 87
1 0.0177401 0.0115322 0.0768118
1 -0.0421577 1.99556 1.88625
1 2.066 -0.0160918 1.81051
1 1.90905 1.96696 0.127998
4
 Atoms. Timestep: 88
1 0.0166017 0.0104185 0.0770357
1 -0.0436522 1.9969 1.88609
1 2.06776 -0.0174308 1.80994
1 1.90993 1.96807 0.128501
4
 Atoms. Timestep: 89
1 0.0154426 0.00928498 0.0772644
1 -0.0451727 1.99827 1.88594
1 2.06955 -0.0187941 1.80936
1 1.91082 1.96921 0.129012
4
 Atoms. Timestep: 90
1 0.0142625 0.00813126 0.0774981
1 -0.0467194 1.99965 1.88577
1 2.07136 -0.0201818 1.80877
1 1.91173 1.97036 0.129531
4
 Atoms. Timestep: 91
1 0.013061 0.00695709 0.0777367
1 -0.0482928 2.00106 1.88561
1 2.07321 -0.0215944 1.80817
1 1.91266 1.97154 0.13006
4
 Atoms. Timestep: 92
1 0.0118379 0.00576218 0.0779804
1 -0.0498931 2.0025 1.88544
1 2.07508 -0.0230323 1.80756
1 1.91361 1.97274 0.130597
4
 Atoms. Timestep: 93
1 0.0105928 0.00454625 0.0782293
1 -0.0515208 2.00396 1.88526
1 2.07699 -0.0244958 1.80694
1 1.91458 1.97395 0.131143
4
 Atoms. Timestep: 94
1 0.00932542 0.00330898 0.0784836
1 -0.0531761 2.00545 1.88508
1 2.07892 -0.0259853 1.80631
1 1.91556 1.97519 0.131699
4
 Atoms. Timestep: 95
1 0.00803539 0.00205007 0.0787432
1 -0.0548595 2.00696 1.8849
1 2.08089 -0.0275011 1.80567
1 1.91657 1.97645 0.132263
4
 Atoms. Timestep: 96
1 0.00672238 0.000769218 0.0790084
1 -0.0565713 2.0085 1.88471
1 2.08289 -0.0290438 1.80502
1 1.91759 1.97774 0.132837
4
 Atoms. Timestep: 97
1 0.00538606 -0.000533895 0.0792792
1 -0.0583119 2.01007 1.88452
1 2.08493 -0.0306135 1.80436
1 1.91863 1.97904 0.133421
4
 Atoms. Timestep: 98
1 0.00402608 -0.00185959 0.0795558
1 -0.0600817 2.01167 1.88432
1 2.08699 -0.0322109 1.80369
1 1.9197 1.98037 0.134014
4
 Atoms. Timestep: 99
1 0.00264207 -0.0032082 0.0798382
1 -0.0618811 2.01329 1.88412
1 2.08909 -0.0338362 1.803
1 1.92078 1.98172 0.134617
4
 Atoms. Timestep: 100
1 0.00123368 -0.00458005 0.0801266
1 -0.0637104 2.01494 1.88391
1 2.09123 -0.0354899 1.80231
1 1.92189 1.9831 0.13523
